         0        -24.815004477        -24.811604916        -24.804972209        -24.799262354        -24.797063804        -24.799263796        -24.801803964        -24.804974403        -24.811606691        -24.815004480          0.220803970          0.220803970          0.220803970          0.220803970          0.220803970          0.110401985          0.110401985          0.220803970          0.220803970
         1        -24.815004477        -24.813368561        -24.808502065        -24.803003242        -24.800606851        -24.802579651        -24.805585785        -24.809111037        -24.813370029        -24.815004480          0.252284540          0.229788268          0.225906344          0.227093410          0.201756435          0.138747195          0.138692505          0.204788692          0.252280431
         2        -24.815004477        -24.814158079        -24.809837761        -24.804149547        -24.801640734        -24.803307992        -24.806988092        -24.811022487        -24.814237631        -24.815004480          0.279894535          0.250302052          0.225463811          0.215204670          0.186602571          0.161221641          0.162132661          0.211101537          0.273394905
         3        -24.815004477        -24.814387732        -24.810362368        -24.804607196        -24.802068109        -24.803567494        -24.807323888        -24.811773207        -24.814516246        -24.815004480          0.287650981          0.269687121          0.236120811          0.212336668          0.189462732          0.171448226          0.185758094          0.234871002          0.270724077
         4        -24.815004477        -24.814509663        -24.810682491        -24.804844963        -24.802191668        -24.803579341        -24.807514399        -24.812196359        -24.814648038        -24.815004480          0.294093921          0.278799269          0.238934691          0.210580895          0.189806786          0.179781856          0.198951928          0.242020968          0.270682320
         5        -24.815004477        -24.814557548        -24.810858729        -24.804961699        -24.802239996        -24.803579433        -24.807601252        -24.812379304        -24.814697040        -24.815004480          0.297394925          0.278359191          0.241929578          0.211839722          0.191532364          0.184308534          0.204077754          0.246404989          0.270857342
         6        -24.815004477        -24.814606855        -24.811012133        -24.805076728        -24.802258430        -24.803570041        -24.807693041        -24.812528246        -24.814741618        -24.815004480          0.300307195          0.280411552          0.243816356          0.213550250          0.193783525          0.189127987          0.209014177          0.249116899          0.271663972
         7        -24.815004477        -24.814636524        -24.811113010        -24.805158031        -24.802264589        -24.803566257        -24.807754573        -24.812620157        -24.814767704        -24.815004480          0.302295940          0.280973765          0.245054480          0.219041486          0.190994367          0.192195181          0.212002613          0.250684348          0.272344654
         8        -24.815004477        -24.814649319        -24.811155490        -24.805190636        -24.802262214        -24.803570356        -24.807781547        -24.812657315        -24.814778054        -24.815004480          0.302918331          0.281209253          0.245644864          0.223237364          0.188149053          0.193168044          0.213150554          0.251066442          0.272588681
         9        -24.815004477        -24.814767732        -24.811602214        -24.805456501        -24.802209181        -24.803606241        -24.808067569        -24.813034087        -24.814872125        -24.815004480          0.311112389          0.284306845          0.254486686          0.265866195          0.161335503          0.202184791          0.225894803          0.255682487          0.276934188
        10        -24.815004477        -24.814787470        -24.811669290        -24.805451515        -24.802234541        -24.803685194        -24.808133565        -24.813084944        -24.814884763        -24.815004480          0.311434071          0.284306668          0.258507374          0.263579803          0.166436356          0.200535773          0.226480027          0.255678814          0.277161792
        11        -24.815004477        -24.814840742        -24.811859570        -24.805399969        -24.802215163        -24.803884040        -24.808366598        -24.813244372        -24.814919189        -24.815004480          0.312757318          0.285987541          0.269602813          0.259144885          0.181309140          0.197722496          0.227859120          0.255917038          0.278081162
        12        -24.815004477        -24.814854106        -24.811894358        -24.805434569        -24.802234058        -24.803917602        -24.808444453        -24.813287271        -24.814927538        -24.815004480          0.312909885          0.287240062          0.270224277          0.259753590          0.183270133          0.199129274          0.227742855          0.256053256          0.278086181
        13        -24.815004477        -24.814882568        -24.811981807        -24.805492716        -24.802227520        -24.803988362        -24.808632085        -24.813393263        -24.814945614        -24.815004480          0.313466228          0.290045652          0.272062681          0.262179068          0.187838526          0.202485957          0.227778701          0.256207712          0.278101969
        14        -24.815004477        -24.814886880        -24.812002073        -24.805506089        -24.802234176        -24.804004047        -24.808664056        -24.813411977        -24.814948372        -24.815004480          0.313548694          0.290328577          0.272415968          0.262523696          0.188559305          0.202898352          0.227872796          0.256156612          0.278036365
        15        -24.815004477        -24.814907971        -24.812089233        -24.805559501        -24.802228988        -24.804066941        -24.808821085        -24.813509282        -24.814961855        -24.815004480          0.314098273          0.292171494          0.274521956          0.264938611          0.192326432          0.205589223          0.228749929          0.255948181          0.277720787
        16        -24.815004477        -24.814915237        -24.812127473        -24.805584039        -24.802235247        -24.804094103        -24.808881100        -24.813545775        -24.814966425        -24.815004480          0.314268652          0.292694059          0.275349125          0.265759551          0.193783365          0.206508252          0.229123861          0.255878617          0.277463459
        17        -24.815004477        -24.814928308        -24.812193860        -24.805626807        -24.802234775        -24.804139048        -24.808993071        -24.813615417        -24.814974492        -24.815004480          0.314613868          0.293850093          0.276922770          0.267720601          0.196356379          0.208519771          0.229986218          0.255775981          0.276911318
        18        -24.815004477        -24.814934073        -24.812228010        -24.805648725        -24.802235587        -24.804165360        -24.809050953        -24.813648458        -24.814977935        -24.815004480          0.314744808          0.294337553          0.277682729          0.268627658          0.197624450          0.209403103          0.230320883          0.255720761          0.276562276
        19        -24.815004477        -24.814947049        -24.812305168        -24.805699164        -24.802235414        -24.804221613        -24.809183168        -24.813725593        -24.814985367        -24.815004480          0.315235527          0.295656509          0.279528187          0.270839437          0.200619832          0.211634045          0.231296589          0.255635798          0.275961188
        20        -24.815004477        -24.814958117        -24.812380431        -24.805748350        -24.802234628        -24.804271496        -24.809303771        -24.813799115        -24.814991252        -24.815004480          0.315471706          0.296811460          0.281416008          0.273072402          0.203401196          0.213881647          0.232508136          0.255545382          0.274858750
        21        -24.815004477        -24.814959881        -24.812394610        -24.805758036        -24.802235446        -24.804283892        -24.809329921        -24.813811841        -24.814992124        -24.815004480          0.315491249          0.296992461          0.281726124          0.273437995          0.203885330          0.214195331          0.232626693          0.255522231          0.274627458
        22        -24.815004477        -24.814969349        -24.812469076        -24.805808220        -24.802234623        -24.804334188        -24.809449873        -24.813882379        -24.814996548        -24.815004480          0.315638825          0.298148735          0.283616319          0.275686357          0.206666971          0.216431958          0.233890527          0.255440486          0.273309392
        23        -24.815004477        -24.814972024        -24.812493930        -24.805825485        -24.802235624        -24.804354620        -24.809493284        -24.813904155        -24.814997670        -24.815004480          0.315650496          0.298463060          0.284188373          0.276363535          0.207579203          0.217072154          0.234144842          0.255380398          0.272834049
        24        -24.815004477        -24.814978552        -24.812555526        -24.805868346        -24.802235599        -24.804397013        -24.809591514        -24.813960015        -24.815000188        -24.815004480          0.315688816          0.299374469          0.285736261          0.278266265          0.209828155          0.218968032          0.235184329          0.255235528          0.271545909
        25        -24.815004477        -24.814980672        -24.812577847        -24.805884428        -24.802235634        -24.804415174        -24.809633753        -24.813979878        -24.815000910        -24.815004480          0.315671164          0.299682810          0.286284817          0.278940695          0.210663462          0.219625985          0.235411629          0.255149701          0.271031010
        26        -24.815004477        -24.814984016        -24.812614443        -24.805910512        -24.802235629        -24.804442085        -24.809695366        -24.814012231        -24.815001975        -24.815004480          0.315683872          0.300218877          0.287213098          0.280073028          0.212034951          0.220736493          0.235979871          0.255038150          0.270216983
        27        -24.815004477        -24.814989087        -24.812676956        -24.805955522        -24.802235603        -24.804487253        -24.809793860        -24.814065924        -24.815003286        -24.815004480          0.315597102          0.301100005          0.288822694          0.282027251          0.214408642          0.222617601          0.237079197          0.254764378          0.268619119
        28        -24.815004477        -24.814989790        -24.812686769        -24.805962971        -24.802235628        -24.804496088        -24.809815479        -24.814074334        -24.815003433        -24.815004480          0.315567747          0.301225816          0.289063575          0.282329411          0.214777541          0.222878877          0.237133812          0.254700267          0.268346617
        29        -24.815004477        -24.814993092        -24.812735220        -24.805998840        -24.802235613        -24.804531984        -24.809893321        -24.814114512        -24.815004020        -24.815004480          0.315427871          0.301881501          0.290314972          0.283872350          0.216640358          0.224354909          0.237933893          0.254417736          0.266957523
        30        -24.815004477        -24.814994182        -24.812753159        -24.806012550        -24.802235634        -24.804546928        -24.809927433        -24.814129208        -24.815004164        -24.815004480          0.315354170          0.302108520          0.290768442          0.284443578          0.217336273          0.224897123          0.238110523          0.254280106          0.266408462
        31        -24.815004477        -24.814996916        -24.812802439        -24.806050058        -24.802235633        -24.804584604        -24.810006562        -24.814168604        -24.815004400        -24.815004480          0.315143903          0.302756764          0.292049288          0.286045301          0.219249712          0.226390365          0.238909147          0.253916049          0.264860642
        32        -24.815004477        -24.814997711        -24.812818742        -24.806062753        -24.802235634        -24.804598009        -24.810038184        -24.814181590        -24.815004431        -24.815004480          0.315049426          0.302950903          0.292468176          0.286578090          0.219889213          0.226900436          0.239057128          0.253747746          0.264311626
        33        -24.815004477        -24.814998744        -24.812841220        -24.806080235        -24.802235634        -24.804615792        -24.810076286        -24.814199150        -24.815004439        -24.815004480          0.314931392          0.303232682          0.293054665          0.287319443          0.220774699          0.227589242          0.239376438          0.253543238          0.263561173
        34        -24.815004477        -24.814999707        -24.812864329        -24.806098433        -24.802235634        -24.804634236        -24.810114742        -24.814216796        -24.815004414        -24.815004480          0.314769193          0.303503510          0.293656330          0.288090081          0.221689353          0.228267816          0.239707155          0.253288975          0.262732919
        35        -24.815004477        -24.815001215        -24.812906266        -24.806131861        -24.802235634        -24.804667800        -24.810183077        -24.814248071        -24.815004290        -24.815004480          0.314458500          0.303987848          0.294755322          0.289505010          0.223361765          0.229550227          0.240303155          0.252806175          0.261185405
        36        -24.815004477        -24.815001434        -24.812913235        -24.806137521        -24.802235634        -24.804673752        -24.810197546        -24.814253339        -24.815004264        -24.815004480          0.314394512          0.304062878          0.294935769          0.289741757          0.223641085          0.229756975          0.240344431          0.252708101          0.260914873
        37        -24.815004477        -24.815003392        -24.812992206        -24.806202123        -24.802235634        -24.804737856        -24.810319471        -24.814309401        -24.815003821        -24.815004480          0.313687495          0.304940747          0.297031846          0.292471157          0.226868925          0.232298333          0.241474927          0.251667393          0.257785866
        38        -24.815004477        -24.815003548        -24.813001638        -24.806210224        -24.802235634        -24.804747765        -24.810352984        -24.814316969        -24.815003775        -24.815004480          0.313565898          0.305019388          0.297269694          0.292797725          0.227267326          0.232633299          0.241257014          0.251454076          0.257384767
        39        -24.815004477        -24.815004357        -24.813076832        -24.806274504        -24.802235634        -24.804814326        -24.810474036        -24.814367744        -24.815003355        -24.815004480          0.312568000          0.305726524          0.299268736          0.295489708          0.230495268          0.234618986          0.242252779          0.250038479          0.254021944
        40        -24.815004477        -24.815004396        -24.813085481        -24.806282101        -24.802235634        -24.804821531        -24.810491803        -24.814373294        -24.815003334        -24.815004480          0.312402069          0.305776522          0.299496091          0.295807594          0.230841073          0.234933596          0.242253238          0.249827940          0.253599067
        41        -24.815004477        -24.815004415        -24.813090909        -24.806286907        -24.802235634        -24.804826124        -24.810501311        -24.814376603        -24.815003323        -24.815004480          0.312292558          0.305806898          0.299638447          0.296008382          0.231062256          0.235114881          0.242273451          0.249697517          0.253330233
        42        -24.815004477        -24.815004423        -24.813093367        -24.806289090        -24.802235634        -24.804828235        -24.810505562        -24.814378100        -24.815003319        -24.815004480          0.312242087          0.305820049          0.299702853          0.296099454          0.231163989          0.235192946          0.242283577          0.249637174          0.253208177
