      38
 i =        1, E =        -0.0231086608
 Ar        16.8773225351        7.2595905272       13.9246835670
 Ar         5.1445774260       12.1651706949       12.9335732081
 Ar         5.2735834035        7.6991362952        4.8232906858
 Ar        12.8364493438        6.1020990866        6.6974280217
 Ar        11.5500367709       11.8937099415       16.5139212784
 Ar         6.3191623508        2.9465917487       12.3662449004
 Ar         5.0097768281       11.1288050517        5.9130582907
 Ar        14.9300246232        9.6842770065        4.4502649500
 Ar         9.3204834504       13.8216836184       13.6821819054
 Ar        16.3048449502       14.1627775793       11.1714446992
 Ar        10.3455979882        7.5346925164        2.4346063446
 Ar         8.3508762699       11.1582648723        3.7015193902
 Ar         6.8579967124       15.6180703299       10.5866008344
 Ar        13.8233942924       15.8383909030       14.7239350995
 Ar        16.5877673364        5.6453507366        6.6782412914
 Ar        18.3174455560       10.4084517472       11.2015760432
 Ar        14.2760771014       15.8330993349        7.8852311488
 Ar        12.6950255517       13.1297144697        4.4592124554
 Ar         9.6647760498       17.5332846748        9.4582151958
 Ar        10.1021162919       14.7366229656        7.6960231705
 Ar        15.7698709076       12.0760016906        7.9650277182
 Ar         6.4628690959        9.8457114978       17.5658647576
 Ar         9.0884715440        2.4786370017        4.5294324348
 Ar         1.6818075777       10.7077039704       10.2864666747
 Ar        12.8760281146        7.4339252282       16.9490781863
 Ar        15.7955337239        4.7799162753       10.3721394293
 Ar         6.5859106303        7.9986171117       12.4555433705
 Ar         4.7680176466        4.4382471619        9.4529032492
 Ar        11.3628469378        3.1524631571        9.5436953325
 Ar        11.9808250405        5.4315727779       12.6315346348
 Ar         8.3201982915        4.5020318861       14.9261998251
 Ar        11.7192541368       12.0427131530       10.0817985863
 Ar        13.4912342376       10.0288722260       12.5376314990
 Ar        10.9920265614        9.9336204382        6.9443919579
 Ar        12.3694066698        7.7495294615        9.3511475431
 Ar         8.4709033324       11.5515679903       10.3541394259
 Ar         9.8816536758        8.7621152524       12.1068854612
 Ar         9.2885090438        6.7930256192        9.2716474327
      38
 i =        4, E =        -0.0279588737
 Ar        16.8652383913        7.2650223219       13.9121722261
 Ar         5.1607497084       12.1604795688       12.9227794944
 Ar         5.2830943031        7.6813080016        4.8183068322
 Ar        12.8557056770        5.9905424138        6.5130758219
 Ar        11.5491503554       11.8903821631       16.4991325022
 Ar         6.3193523549        2.9351926040       12.3638949129
 Ar         5.0166099956       11.1491114771        5.9218016932
 Ar        14.9169610645        9.6860638839        4.4673472518
 Ar         9.3208382244       13.8094212308       13.6661350306
 Ar        16.2939603873       14.1547515861       11.1681098227
 Ar        10.3442820021        7.5421587108        2.4478694998
 Ar         8.3570404831       11.1480437306        3.7143978100
 Ar         6.8494471900       15.5843014890       10.5979963767
 Ar        13.8198045575       15.8283790952       14.7171595513
 Ar        16.5849835373        5.6509790768        6.6815844724
 Ar        18.3000019789       10.4111796175       11.2007509841
 Ar        14.2664610196       15.8138415429        7.8905150974
 Ar        12.6916666817       13.1189189374        4.4799396596
 Ar         9.6758239363       17.6255430350        9.5046169641
 Ar        10.1223097796       14.6355268366        7.6497009443
 Ar        15.7536755494       12.0726185138        7.9671151701
 Ar         6.4661757471        9.8464096631       17.5580640494
 Ar         9.0906450450        2.4842199196        4.5331494900
 Ar         1.6909749633       10.7091427202       10.2885248256
 Ar        12.8740809996        7.4393410622       16.9349385854
 Ar        15.7774954698        4.7926593249       10.3737028250
 Ar         6.5237882852        7.9827721554       12.4562696768
 Ar         4.7670456738        4.4536370661        9.4383137746
 Ar        11.3650563594        3.1764344382        9.5409056143
 Ar        11.9767047667        5.4475914282       12.6211245506
 Ar         8.3393734190        4.5235048893       14.9314495702
 Ar        11.8313282232       12.0660147099       10.0575035964
 Ar        13.5011254337       10.0110032076       12.5473543689
 Ar        10.9792887285        9.9546569247        6.9211708024
 Ar        12.5067210804        7.8987187103        9.5840944746
 Ar         8.3422030821       11.5563900992       10.3544553111
 Ar         9.9758019999        8.7854349722       12.1427893610
 Ar         9.1377355460        6.7243588724        9.2385670057
      38
 i =        7, E =        -0.0287650150
 Ar        16.8461387464        7.2736249687       13.8926305089
 Ar         5.1853330505       12.1534013964       12.9061967906
 Ar         5.2975607378        7.6586471813        4.8123508532
 Ar        12.8605742353        5.9028998537        6.3632698819
 Ar        11.5478019890       11.8850912561       16.4760230263
 Ar         6.3206294612        2.9204433875       12.3609363872
 Ar         5.0276879076       11.1755189748        5.9340134855
 Ar        14.8967492860        9.6886705328        4.4936561148
 Ar         9.3210471408       13.7904953181       13.6415686736
 Ar        16.2767729924       14.1421752790       11.1631200723
 Ar        10.3424701114        7.5535188085        2.4688362974
 Ar         8.3668136212       11.1323734012        3.7344771744
 Ar         6.8434193155       15.5365371219       10.6128511330
 Ar        13.8142198682       15.8127671480       14.7065904809
 Ar        16.5824058704        5.6596386827        6.6869650948
 Ar        18.2727573186       10.4153548021       11.1995279195
 Ar        14.2514257930       15.7836524418        7.8987211776
 Ar        12.6861890634       13.1022524004        4.5125042306
 Ar         9.6927289729       17.7159898209        9.5493326028
 Ar        10.1460937786       14.5269802852        7.6071139206
 Ar        15.7279741463       12.0668630743        7.9704723710
 Ar         6.4712957932        9.8474735793       17.5459626892
 Ar         9.0941935804        2.4930811688        4.5390015572
 Ar         1.7053288739       10.7113530373       10.2917300420
 Ar        12.8709955269        7.4478326491       16.9126763894
 Ar        15.7496353006        4.8126696773       10.3765841773
 Ar         6.4623933925        7.9663777421       12.4532842753
 Ar         4.7672836281        4.4767301982        9.4180347084
 Ar        11.3681925841        3.2122395850        9.5362066328
 Ar        11.9713728557        5.4704847102       12.6077380072
 Ar         8.3667191110        4.5550505369       14.9364636493
 Ar        11.9368672993       12.0905243970       10.0254535789
 Ar        13.5249362777        9.9924058388       12.5734161917
 Ar        10.9674648567        9.9764298813        6.8983060396
 Ar        12.6358699213        8.0170713929        9.7727018415
 Ar         8.2173636689       11.5658970015       10.3547439349
 Ar        10.0665326343        8.8115769578       12.1847735736
 Ar         9.0094632888        6.6619615112        9.2085445148
      38
 i =       10, E =        -0.0299131097
 Ar        16.7613767439        7.3118657400       13.8074603677
 Ar         5.2856733495       12.1247427907       12.8380487206
 Ar         5.3581223209        7.5904025775        4.7971639544
 Ar        12.8128060713        5.7785153357        6.1200102565
 Ar        11.5425923636       11.8611691275       16.3757022784
 Ar         6.3319977563        2.8757913398       12.3515148166
 Ar         5.0779866451       11.2592715770        5.9787555200
 Ar        14.8101284417        9.6986822892        4.6058363996
 Ar         9.3199184900       13.7099919142       13.5381182488
 Ar        16.2009613634       14.0875866875       11.1431892535
 Ar        10.3359735291        7.6012470123        2.5610873969
 Ar         8.4101632214       11.0662615714        3.8212349730
 Ar         6.8539064125       15.3565371123       10.6627195650
 Ar        13.7900815278       15.7449783717       14.6607253143
 Ar        16.5762253757        5.6970003040        6.7112098390
 Ar        18.1538064755       10.4325513379       11.1946290100
 Ar        14.1856610005       15.6527195810        7.9339229031
 Ar        12.6613801952       13.0312055440        4.6547003943
 Ar         9.7538064633       17.8946583656        9.6404669499
 Ar        10.2184075303       14.2483813203        7.5332377677
 Ar        15.6148572705       12.0381187972        7.9847522039
 Ar         6.4932927713        9.8519151326       17.4939103986
 Ar         9.1104118497        2.5323014934        4.5645870051
 Ar         1.7680141180       10.7206542032       10.3055522894
 Ar        12.8574243115        7.4850811188       16.8145475162
 Ar        15.6302701311        4.9002917207       10.3914564474
 Ar         6.3436941909        7.9301808718       12.4240820952
 Ar         4.7795991918        4.5707359661        9.3461070449
 Ar        11.3802728863        3.3583325725        9.5135196765
 Ar        11.9547863666        5.5560063456       12.5666232257
 Ar         8.4695650505        4.6795124266       14.9389652684
 Ar        12.1492177088       12.1459146989        9.9179899477
 Ar        13.6819745175        9.9946995649       12.7746837284
 Ar        10.9505680780       10.0310649444        6.8537303260
 Ar        12.9073586913        8.1464522360        9.9645193206
 Ar         7.9651602066       11.6046695304       10.3585713694
 Ar        10.1978449038        8.8885601230       12.3120049101
 Ar         8.7974144786        6.5480043543        9.1714432974
      38
 i =       13, E =        -0.0317973881
 Ar        16.6550960530        7.3592856919       13.7024786276
 Ar         5.3705824630       12.0963726304       12.7907419800
 Ar         5.4308928476        7.5368230594        4.7897352170
 Ar        12.7134434911        5.8002356444        6.0985295393
 Ar        11.5381303269       11.8292869866       16.2510839314
 Ar         6.3517628063        2.8444234027       12.3415064797
 Ar         5.1420335390       11.3310249997        6.0264128191
 Ar        14.7051440877        9.7068762896        4.7420358965
 Ar         9.3173401632       13.6119721711       13.4159782128
 Ar        16.1057018011       14.0208605231       11.1229804346
 Ar        10.3300904112        7.6577420888        2.6767565304
 Ar         8.4639191657       10.9887308928        3.9265159726
 Ar         6.8924254575       15.1732550000       10.7119338141
 Ar        13.7605680292       15.6609489547       14.6039487172
 Ar        16.5647884203        5.7432978303        6.7415081604
 Ar        18.0049726334       10.4516900923       11.1893721557
 Ar        14.1014926622       15.4956100786        7.9760384357
 Ar        12.6361532239       12.9464315853        4.8233079862
 Ar         9.8144561924       17.9617295827        9.6832496612
 Ar        10.2701382827       14.0508118248        7.5132975550
 Ar        15.4858742821       11.9923106820        7.9936729058
 Ar         6.5203517364        9.8571131132       17.4300619520
 Ar         9.1316621406        2.5820103725        4.5965349473
 Ar         1.8462076566       10.7317646075       10.3224826056
 Ar        12.8404373711        7.5322984479       16.6899166645
 Ar        15.4851904523        5.0086098479       10.4117578864
 Ar         6.3055271785        7.9118403637       12.3766606001
 Ar         4.8084575295        4.6784943304        9.2775194599
 Ar        11.3944060919        3.5271819690        9.4806259803
 Ar        11.9429057028        5.6448506672       12.5356632110
 Ar         8.5786710045        4.8189392083       14.9205005864
 Ar        12.2493952411       12.1648349027        9.8351497447
 Ar        13.8929991624       10.0551917558       13.0651536061
 Ar        10.9569071717       10.0698762755        6.8381574917
 Ar        13.0390670502        8.0573273808        9.7846828800
 Ar         7.8930500960       11.6282950216       10.3320260617
 Ar        10.1855737035        8.9633864348       12.4176065095
 Ar         8.7668863715        6.5143212902        9.1911947805
      38
 i =       16, E =        -0.0332153784
 Ar        16.5386161697        7.4094971674       13.5881477999
 Ar         5.4237729673       12.0713739295       12.7773985866
 Ar         5.5094203647        7.5058223626        4.7920151739
 Ar        12.5785522149        5.9495446592        6.2739508360
 Ar        11.5358396580       11.7912870660       16.1128738107
 Ar         6.3786544796        2.8332863573       12.3311702307
 Ar         5.2140817175       11.3811249335        6.0725011223
 Ar        14.5920253247        9.7089412912        4.8898209044
 Ar         9.3152089148       13.5051268162       13.2890497259
 Ar        15.9990857474       13.9484473431       11.1063628345
 Ar        10.3261427534        7.7169656612        2.8059982484
 Ar         8.5225518373       10.9086387637        4.0398725949
 Ar         6.9526215738       15.0140392103       10.7547258995
 Ar        13.7283919712       15.5676538014       14.5411070581
 Ar        16.5443869630        5.7949652294        6.7754242945
 Ar        17.8389296807       10.4701084751       11.1846101054
 Ar        14.0043698128       15.3306218714        8.0205103301
 Ar        12.6167853030       12.8583845174        4.9978111149
 Ar         9.8672985953       17.9177829465        9.6788967259
 Ar        10.2862939256       13.9527110746        7.5405302289
 Ar        15.3598433639       11.9283674827        7.9919260436
 Ar         6.5501789628        9.8625301998       17.3599592461
 Ar         9.1561773403        2.6381182029        4.6321418753
 Ar         1.9332091573       10.7436302447       10.3410109600
 Ar        12.8215597064        7.5859590949       16.5482756519
 Ar        15.3289366470        5.1260742462       10.4352663176
 Ar         6.3463878832        7.9120210956       12.3160449235
 Ar         4.8534541873        4.7885722156        9.2221090989
 Ar        11.4108272355        3.7017103549        9.4387564587
 Ar        11.9380327519        5.7301668938       12.5189670825
 Ar         8.6818262849        4.9590495385       14.8796031509
 Ar        12.2440501447       12.1400178067        9.7994086995
 Ar        14.1170472587       10.1540658662       13.3873209761
 Ar        10.9850699081       10.0878756948        6.8516129434
 Ar        13.0312234767        7.7988786744        9.3148381446
 Ar         8.0057189330       11.6232265332       10.2668999581
 Ar        10.0552947996        9.0320426543       12.4875643954
 Ar         8.9008339838        6.5574257238        9.2622964482
      38
 i =       19, E =        -0.0354306645
 Ar        16.4344804000        7.4193630673       13.4601510996
 Ar         5.4306210829       12.0333103823       12.8195699016
 Ar         5.6080635936        7.5261660418        4.8181312969
 Ar        12.4452216792        6.0252438837        6.2995572105
 Ar        11.5444073026       11.7311602478       15.9367260388
 Ar         6.4226629438        2.8837054963       12.3126499817
 Ar         5.3057554196       11.3831477634        6.1230718528
 Ar        14.4661940494        9.6481853893        5.0659859237
 Ar         9.3444727832       13.3697927406       13.1852274557
 Ar        15.8577549578       13.8650230596       11.1141845930
 Ar        10.3360379228        7.7726603423        2.9750696252
 Ar         8.5813219360       10.8397059887        4.1675274733
 Ar         7.0059366630       14.9850000908       10.7731071305
 Ar        13.6888296540       15.4420966732       14.4587408880
 Ar        16.4598509837        5.8685641737        6.8242222314
 Ar        17.6252936438       10.4786150610       11.1834293800
 Ar        13.8549290200       15.1919956113        8.0651536946
 Ar        12.6515976777       12.8045746090        5.1305415603
 Ar         9.8993596941       17.8140983282        9.6763661538
 Ar        10.1410353053       13.9623101092        7.5371749637
 Ar        15.3038530549       11.7741051864        7.9350980672
 Ar         6.5897472512        9.8684030850       17.2685772620
 Ar         9.1891123577        2.7144378151        4.6792794505
 Ar         2.0468060687       10.7575710647       10.3644304185
 Ar        12.7975387543        7.6626149240       16.3487980689
 Ar        15.1753206269        5.2268488483       10.4679949641
 Ar         6.4207329049        7.9194734897       12.2401039943
 Ar         4.9453236237        4.9011397752        9.2091130534
 Ar        11.4578288082        3.8804166838        9.3645756145
 Ar        11.9482014585        5.8492268152       12.5227116380
 Ar         8.7698405752        5.1059373070       14.7767800631
 Ar        12.2868258306       12.0061937399        9.9770700392
 Ar        14.1935817169       10.2697064790       13.5811724987
 Ar        11.0193246611       10.0510258072        6.8935397035
 Ar        12.9947297304        7.7467963989        9.1097524151
 Ar         8.2445717374       11.4689052920       10.0982415073
 Ar         9.9929101914        9.1261523215       12.5033552972
 Ar         9.0126259353        6.6323819077        9.3595974898
      38
 i =       22, E =        -0.0385903553
 Ar        16.3076342091        7.3810425688       13.2711911603
 Ar         5.3925256834       11.9620901849       12.9371607938
 Ar         5.7707413901        7.6160782129        4.8834996570
 Ar        12.2732790596        6.0046952776        6.0862423650
 Ar        11.5614351684       11.6237428667       15.6566267420
 Ar         6.5044624527        3.0299180824       12.2762582417
 Ar         5.4550927683       11.3289612115        6.2014996670
 Ar        14.2769249468        9.4578101736        5.3205858226
 Ar         9.4253812619       13.1465036666       13.0693949428
 Ar        15.6173262294       13.7388927428       11.1550853665
 Ar        10.3728803323        7.8357938672        3.2559366077
 Ar         8.6543356372       10.7697412859        4.3592533608
 Ar         7.0675771463       15.0966293938       10.7652832187
 Ar        13.6245918241       15.2263865024       14.3199827706
 Ar        16.2587561186        5.9990985848        6.9104260621
 Ar        17.2740508243       10.4731916169       11.1850158672
 Ar        13.5858451007       15.0339000772        8.1289252789
 Ar        12.7621640610       12.7844991808        5.2552054266
 Ar         9.9186431803       17.6227670011        9.6882829860
 Ar         9.7549807296       14.0737129206        7.4902744160
 Ar        15.3206086294       11.4701111303        7.8154683964
 Ar         6.6567861095        9.8772245003       17.1147896120
 Ar         9.2455760615        2.8460369786        4.7591666439
 Ar         2.2373183993       10.7792602518       10.4031651899
 Ar        12.7565410251        7.7955892900       16.0016293333
 Ar        14.9807099215        5.3299163898       10.5236475891
 Ar         6.5446670380        7.9338312174       12.1192360870
 Ar         5.1306234762        5.0602969205        9.2438431378
 Ar        11.5657368509        4.1238350246        9.2267500949
 Ar        11.9784157470        6.0588285074       12.5504389576
 Ar         8.8710918251        5.3185391016       14.5596973740
 Ar        12.4272842265       11.6997037634       10.4708945641
 Ar        14.1116493871       10.4363014961       13.6573145574
 Ar        11.0615821909        9.9374960486        6.9877061523
 Ar        12.9470478666        7.9985718057        9.2516479519
 Ar         8.6763888172       11.0835881064        9.7405207476
 Ar        10.0356959363        9.2882156289       12.4713480579
 Ar         9.0863503677        6.7632544200        9.5133847996
      38
 i =       25, E =        -0.0399798800
 Ar        16.2451196592        7.3864538890       13.2174696719
 Ar         5.4512883001       11.9219475188       12.9152410549
 Ar         5.8468860632        7.6213688627        4.9003287763
 Ar        12.2496734236        5.8873211442        5.8079428120
 Ar        11.5071887987       11.6056745797       15.6106971469
 Ar         6.5346970051        3.0675853167       12.2610766634
 Ar         5.5066913523       11.3436891969        6.2541222870
 Ar        14.1822149405        9.2758635791        5.3121969142
 Ar         9.4454255055       13.0582466441       12.9833359154
 Ar        15.5134211434       13.7023331188       11.1621097734
 Ar        10.4055994103        7.8318610033        3.3572522350
 Ar         8.6588532157       10.7782550689        4.4353401711
 Ar         7.0830493422       15.0492188181       10.7700441448
 Ar        13.5936485124       15.1266650512       14.2596334513
 Ar        16.1727364474        6.0597406923        6.9458358603
 Ar        17.1423837842       10.4516679377       11.1781758594
 Ar        13.4897673208       14.9492301692        8.1738460998
 Ar        12.7617665424       12.7812107964        5.3148086869
 Ar         9.9458727588       17.6777785207        9.7501604820
 Ar         9.7002583599       13.9362453077        7.4351499470
 Ar        15.3192874112       11.4700274040        7.9230599808
 Ar         6.6860945177        9.8820046198       17.0447332049
 Ar         9.2715866040        2.9055694056        4.7944276946
 Ar         2.3185450482       10.7880771298       10.4207507931
 Ar        12.7323098878        7.8399268627       15.8680164498
 Ar        14.9339324056        5.3335239198       10.5232882766
 Ar         6.4887607524        7.9151365143       12.0865495584
 Ar         5.1962193692        5.1412298770        9.2360390266
 Ar        11.6166652103        4.2147399354        9.1963663917
 Ar        11.9754288622        6.1606354664       12.5316840941
 Ar         8.9200613478        5.4262727331       14.4966172065
 Ar        12.5912376425       11.6646924776       10.5337735901
 Ar        14.1654599200       10.4265081121       13.6100075414
 Ar        11.0180960565        9.9477619200        6.9924197252
 Ar        13.1172909307        8.2601533280        9.6158479002
 Ar         8.5619518774       11.0253398363        9.6359633385
 Ar        10.2303894320        9.3432809697       12.5614767042
 Ar         8.9128428388        6.7488182730        9.5109905703
      38
 i =       28, E =        -0.0415852193
 Ar        16.1609937106        7.4145415810       13.2059575091
 Ar         5.5444284738       11.8739255562       12.8653385723
 Ar         5.9458695507        7.6597833659        4.9358637343
 Ar        12.2094853824        5.9619489519        5.8863730894
 Ar        11.3869769319       11.6054037881       15.6551240280
 Ar         6.5798654196        3.1425215899       12.2467673210
 Ar         5.5480858359       11.3363020411        6.3362634745
 Ar        14.0837453742        8.9884678124        5.2056164855
 Ar         9.4423121251       12.9792844802       12.8351082724
 Ar        15.4164738473       13.7129157155       11.1789842010
 Ar        10.4546071086        7.7998237274        3.4319760189
 Ar         8.6217120927       10.8601803861        4.4899638561
 Ar         7.1484621176       14.9506491808       10.7504048131
 Ar        13.5479139456       14.9916906296       14.1869980008
 Ar        16.0540215353        6.1416525531        6.9848524527
 Ar        17.0184233166       10.3853776653       11.1554572905
 Ar        13.3937709855       14.8497725907        8.2618897687
 Ar        12.7139295215       12.7625344682        5.3639721806
 Ar         9.9673310562       17.5592527423        9.7347650625
 Ar         9.7038347250       13.8651194965        7.4930018248
 Ar        15.2980183914       11.5621166281        8.1592723779
 Ar         6.7233163568        9.8886519612       16.9523240908
 Ar         9.3111558722        2.9890526018        4.8401291390
 Ar         2.4198348556       10.7963554043       10.4430331867
 Ar        12.6893012236        7.8755540431       15.7306393617
 Ar        14.9519704953        5.2622745016       10.4817359635
 Ar         6.5347660331        7.9324684901       12.0600434467
 Ar         5.2903677450        5.2355809749        9.2472404483
 Ar        11.6649883591        4.2909964814        9.1782173440
 Ar        11.9848276984        6.2296494920       12.5086445561
 Ar         8.9295927100        5.5432232202       14.4125673303
 Ar        12.4712375329       11.6881701998       10.5087444033
 Ar        14.3514159479       10.4377035002       13.5336124378
 Ar        10.9865154627        9.9382039034        7.0856692852
 Ar        13.0919247989        8.2201563202        9.5087308702
 Ar         8.5839761590       11.0303271166        9.5596028493
 Ar        10.2688285666        9.3618718590       12.6499691807
 Ar         8.9984207351        6.8825509798        9.5619257722
      38
 i =       31, E =        -0.0423583215
 Ar        16.1354574627        7.3961614780       13.1984832975
 Ar         5.5582531369       11.8615303930       12.8657771599
 Ar         5.9801402550        7.6844622497        4.9532115518
 Ar        12.1623100546        6.0669871125        6.1173870732
 Ar        11.3860829504       11.5888872257       15.6344168619
 Ar         6.5979853006        3.1754923692       12.2438896728
 Ar         5.5553647168       11.3234959489        6.3696945095
 Ar        14.0707762270        9.0025500357        5.2369363185
 Ar         9.4461593494       12.9584451323       12.7956181814
 Ar        15.4020025739       13.7156121694       11.1978805240
 Ar        10.4477736414        7.8217964122        3.4490736490
 Ar         8.6369420443       10.8656887327        4.5008285361
 Ar         7.1798625445       14.9296826446       10.7325739826
 Ar        13.5264136950       14.9475298476       14.1687968989
 Ar        16.0217775478        6.1666356867        6.9950516737
 Ar        17.0065868391       10.3681525480       11.1371923963
 Ar        13.3558600590       14.8265046387        8.2931016354
 Ar        12.7060864174       12.7234869467        5.3842304402
 Ar         9.9712671513       17.4307089411        9.6871685891
 Ar         9.6945984623       13.9270359570        7.5501924591
 Ar        15.2544480276       11.5268993464        8.1271825339
 Ar         6.7373425397        9.8908502121       16.9189177802
 Ar         9.3262617081        3.0198304610        4.8563401035
 Ar         2.4558586980       10.7986852534       10.4499319231
 Ar        12.6763886303        7.8946039828       15.6927349534
 Ar        14.9502090660        5.2587464962       10.4787541462
 Ar         6.6125791190        7.9600588881       12.0516978539
 Ar         5.3270012641        5.2672214024        9.2554268720
 Ar        11.6603239300        4.3186372368        9.1718097040
 Ar        12.0078840813        6.2219732184       12.4934348307
 Ar         8.9228131829        5.5793861423       14.3795895803
 Ar        12.3215176547       11.6733967644       10.5181323722
 Ar        14.3583399807       10.5204864338       13.6071436341
 Ar        11.0139536145        9.9160598436        7.1072699680
 Ar        12.9794134338        8.0213044764        9.1965919272
 Ar         8.7176454780       11.0094539249        9.5698721303
 Ar        10.1401232589        9.3680668962       12.6299866396
 Ar         9.1888979029        6.9795485512        9.6104576362
      38
 i =       34, E =        -0.0449680752
 Ar        16.0442936088        7.2126077813       13.2324191313
 Ar         5.7603028011       11.7479331978       12.7557363743
 Ar         6.1958599197        7.7900201450        5.0452381759
 Ar        12.1043712912        5.9550439275        6.2487260061
 Ar        11.3202626483       11.5193058902       15.6051458201
 Ar         6.6967235043        3.3654047616       12.2182375070
 Ar         5.5604986548       11.2964212441        6.6149419112
 Ar        14.0216074376        8.9235227905        5.2183011894
 Ar         9.5112540802       12.8663732844       12.6153486930
 Ar        15.3214291385       13.7418425449       11.3251558788
 Ar        10.4448656763        7.8879189846        3.5207589476
 Ar         8.6881683968       10.9858904779        4.5290627636
 Ar         7.2324791826       14.8202299372       10.5967796206
 Ar        13.3822188485       14.6729322521       14.0769032792
 Ar        15.7663920879        6.3260588483        7.0547630809
 Ar        17.0235725762       10.2258114271       11.0106930624
 Ar        13.1350005009       14.7776349807        8.4864141004
 Ar        12.6574929967       12.5769887532        5.3860680970
 Ar        10.0135798083       17.1881210521        9.6654236143
 Ar         9.6778355994       13.8473827513        7.6022433946
 Ar        15.0874057527       11.4304055076        8.0773543160
 Ar         6.8251470483        9.9045409327       16.7086449273
 Ar         9.4185498133        3.2119440766        4.9559575393
 Ar         2.6678691873       10.8094400824       10.4899932683
 Ar        12.5933040831        8.0014668847       15.4986066566
 Ar        15.0806983319        5.1037568070       10.4417049335
 Ar         6.6595277576        8.0333711388       12.0691916699
 Ar         5.5387693969        5.4538130893        9.3014312255
 Ar        11.6611289219        4.3577516784        9.2128347521
 Ar        12.1284208290        6.2432078583       12.3141132699
 Ar         8.8634421823        5.8059275843       14.2181830009
 Ar        12.1239637629       11.6651727898       10.5366316497
 Ar        14.1069387765       10.7946041060       13.5430352229
 Ar        10.9716690804        9.9019651890        7.0139063379